/*--------------------------------*- C++ -*----------------------------------*\
| =========                 |                                                 |
| \\      /  F ield         | OpenFOAM: The Open Source CFD Toolbox           |
|  \\    /   O peration     | Version:  2.4.x                                 |
|   \\  /    A nd           | Web:      www.OpenFOAM.org                      |
|    \\/     M anipulation  |                                                 |
\*---------------------------------------------------------------------------*/
FoamFile
{
    version     2.0;
    format      ascii;
    class       volScalarField;
    location    "0";
    object      ccz;
}
// * * * * * * * * * * * * * * * * * * * * * * * * * * * * * * * * * * * * * //

dimensions      [0 1 0 0 0 0 0];

internalField   nonuniform List<scalar> 
1300
(
0.00015
0.00045
0.00075
0.00105
0.00135
0.00165
0.00195
0.00225
0.00255
0.00285
0.00315
0.00345
0.00375
0.00405
0.00435
0.00465
0.00495
0.00525
0.00555
0.00585
0.00615
0.00645
0.00675
0.00705
0.00735
0.00765
0.00795
0.00825
0.00855
0.00885
0.00915
0.00945
0.00975
0.01005
0.01035
0.01065
0.01095
0.01125
0.01155
0.01185
0.01215
0.01245
0.01275
0.01305
0.01335
0.01365
0.01395
0.01425
0.01455
0.01485
0.01515
0.01545
0.01575
0.01605
0.01635
0.01665
0.01695
0.01725
0.01755
0.01785
0.01815
0.01845
0.01875
0.01905
0.01935
0.01965
0.01995
0.02025
0.02055
0.02085
0.02115
0.02145
0.02175
0.02205
0.02235
0.02265
0.02295
0.02325
0.02355
0.02385
0.02415
0.02445
0.02475
0.02505
0.02535
0.02565
0.02595
0.02625
0.02655
0.02685
0.02715
0.02745
0.02775
0.02805
0.02835
0.02865
0.02895
0.02925
0.02955
0.02985
0.03015
0.03045
0.03075
0.03105
0.03135
0.03165
0.03195
0.03225
0.03255
0.03285
0.03315
0.03345
0.03375
0.03405
0.03435
0.03465
0.03495
0.03525
0.03555
0.03585
0.03615
0.03645
0.03675
0.03705
0.03735
0.03765
0.03795
0.03825
0.03855
0.03885
0.03915
0.03945
0.03975
0.04005
0.04035
0.04065
0.04095
0.04125
0.04155
0.04185
0.04215
0.04245
0.04275
0.04305
0.04335
0.04365
0.04395
0.04425
0.04455
0.04485
0.04515
0.04545
0.04575
0.04605
0.04635
0.04665
0.04695
0.04725
0.04755
0.04785
0.04815
0.04845
0.04875
0.04905
0.04935
0.04965
0.04995
0.05025
0.05055
0.05085
0.05115
0.05145
0.05175
0.05205
0.05235
0.05265
0.05295
0.05325
0.05355
0.05385
0.05415
0.05445
0.05475
0.05505
0.05535
0.05565
0.05595
0.05625
0.05655
0.05685
0.05715
0.05745
0.05775
0.05805
0.05835
0.05865
0.05895
0.05925
0.05955
0.05985
0.06015
0.06045
0.06075
0.06105
0.06135
0.06165
0.06195
0.06225
0.06255
0.06285
0.06315
0.06345
0.06375
0.06405
0.06435
0.06465
0.06495
0.06525
0.06555
0.06585
0.06615
0.06645
0.06675
0.06705
0.06735
0.06765
0.06795
0.06825
0.06855
0.06885
0.06915
0.06945
0.06975
0.07005
0.07035
0.07065
0.07095
0.07125
0.07155
0.07185
0.07215
0.07245
0.07275
0.07305
0.07335
0.07365
0.07395
0.07425
0.07455
0.07485
0.07515
0.07545
0.07575
0.07605
0.07635
0.07665
0.07695
0.07725
0.07755
0.07785
0.07815
0.07845
0.07875
0.07905
0.07935
0.07965
0.07995
0.08025
0.08055
0.08085
0.08115
0.08145
0.08175
0.08205
0.08235
0.08265
0.08295
0.08325
0.08355
0.08385
0.08415
0.08445
0.08475
0.08505
0.08535
0.08565
0.08595
0.08625
0.08655
0.08685
0.08715
0.08745
0.08775
0.08805
0.08835
0.08865
0.08895
0.08925
0.08955
0.08985
0.09015
0.09045
0.09075
0.09105
0.09135
0.09165
0.09195
0.09225
0.09255
0.09285
0.09315
0.09345
0.09375
0.09405
0.09435
0.09465
0.09495
0.09525
0.09555
0.09585
0.09615
0.09645
0.09675
0.09705
0.09735
0.09765
0.09795
0.09825
0.09855
0.09885
0.09915
0.09945
0.09975
0.10005
0.10035
0.10065
0.10095
0.10125
0.10155
0.10185
0.10215
0.10245
0.10275
0.10305
0.10335
0.10365
0.10395
0.10425
0.10455
0.10485
0.10515
0.10545
0.10575
0.10605
0.10635
0.10665
0.10695
0.10725
0.10755
0.10785
0.10815
0.10845
0.10875
0.10905
0.10935
0.10965
0.10995
0.11025
0.11055
0.11085
0.11115
0.11145
0.11175
0.11205
0.11235
0.11265
0.11295
0.11325
0.11355
0.11385
0.11415
0.11445
0.11475
0.11505
0.11535
0.11565
0.11595
0.11625
0.11655
0.11685
0.11715
0.11745
0.11775
0.11805
0.11835
0.11865
0.11895
0.11925
0.11955
0.11985
0.12015
0.12045
0.12075
0.12105
0.12135
0.12165
0.12195
0.12225
0.12255
0.12285
0.12315
0.12345
0.12375
0.12405
0.12435
0.12465
0.12495
0.12525
0.12555
0.12585
0.12615
0.12645
0.12675
0.12705
0.12735
0.12765
0.12795
0.12825
0.12855
0.12885
0.12915
0.12945
0.12975
0.13005
0.13035
0.13065
0.13095
0.13125
0.13155
0.13185
0.13215
0.13245
0.13275
0.13305
0.13335
0.13365
0.13395
0.13425
0.13455
0.13485
0.13515
0.13545
0.13575
0.13605
0.13635
0.13665
0.13695
0.13725
0.13755
0.13785
0.13815
0.13845
0.13875
0.13905
0.13935
0.13965
0.13995
0.14025
0.14055
0.14085
0.14115
0.14145
0.14175
0.14205
0.14235
0.14265
0.14295
0.14325
0.14355
0.14385
0.14415
0.14445
0.14475
0.14505
0.14535
0.14565
0.14595
0.14625
0.14655
0.14685
0.14715
0.14745
0.14775
0.14805
0.14835
0.14865
0.14895
0.14925
0.14955
0.14985
0.15015
0.15045
0.15075
0.15105
0.15135
0.15165
0.15195
0.15225
0.15255
0.15285
0.15315
0.15345
0.15375
0.15405
0.15435
0.15465
0.15495
0.15525
0.15555
0.15585
0.15615
0.15645
0.15675
0.15705
0.15735
0.15765
0.15795
0.15825
0.15855
0.15885
0.15915
0.15945
0.15975
0.16005
0.16035
0.16065
0.16095
0.16125
0.16155
0.16185
0.16215
0.16245
0.16275
0.16305
0.16335
0.16365
0.16395
0.16425
0.16455
0.16485
0.16515
0.16545
0.16575
0.16605
0.16635
0.16665
0.16695
0.16725
0.16755
0.16785
0.16815
0.16845
0.16875
0.16905
0.16935
0.16965
0.16995
0.17025
0.17055
0.17085
0.17115
0.17145
0.17175
0.17205
0.17235
0.17265
0.17295
0.17325
0.17355
0.17385
0.17415
0.17445
0.17475
0.17505
0.17535
0.17565
0.17595
0.17625
0.17655
0.17685
0.17715
0.17745
0.17775
0.17805
0.17835
0.17865
0.17895
0.17925
0.17955
0.17985
0.18015
0.18045
0.18075
0.18105
0.18135
0.18165
0.18195
0.18225
0.18255
0.18285
0.18315
0.18345
0.18375
0.18405
0.18435
0.18465
0.18495
0.18525
0.18555
0.18585
0.18615
0.18645
0.18675
0.18705
0.18735
0.18765
0.18795
0.18825
0.18855
0.18885
0.18915
0.18945
0.18975
0.19005
0.19035
0.19065
0.19095
0.19125
0.19155
0.19185
0.19215
0.19245
0.19275
0.19305
0.19335
0.19365
0.19395
0.19425
0.19455
0.19485
0.19515
0.19545
0.19575
0.19605
0.19635
0.19665
0.19695
0.19725
0.19755
0.19785
0.19815
0.19845
0.19875
0.19905
0.19935
0.19965
0.19995
0.20025
0.20055
0.20085
0.20115
0.20145
0.20175
0.20205
0.20235
0.20265
0.20295
0.20325
0.20355
0.20385
0.20415
0.20445
0.20475
0.20505
0.20535
0.20565
0.20595
0.20625
0.20655
0.20685
0.20715
0.20745
0.20775
0.20805
0.20835
0.20865
0.20895
0.20925
0.20955
0.20985
0.21015
0.21045
0.21075
0.21105
0.21135
0.21165
0.21195
0.21225
0.21255
0.21285
0.21315
0.21345
0.21375
0.21405
0.21435
0.21465
0.21495
0.21525
0.21555
0.21585
0.21615
0.21645
0.21675
0.21705
0.21735
0.21765
0.21795
0.21825
0.21855
0.21885
0.21915
0.21945
0.21975
0.22005
0.22035
0.22065
0.22095
0.22125
0.22155
0.22185
0.22215
0.22245
0.22275
0.22305
0.22335
0.22365
0.22395
0.22425
0.22455
0.22485
0.22515
0.22545
0.22575
0.22605
0.22635
0.22665
0.22695
0.22725
0.22755
0.22785
0.22815
0.22845
0.22875
0.22905
0.22935
0.22965
0.22995
0.23025
0.23055
0.23085
0.23115
0.23145
0.23175
0.23205
0.23235
0.23265
0.23295
0.23325
0.23355
0.23385
0.23415
0.23445
0.23475
0.23505
0.23535
0.23565
0.23595
0.23625
0.23655
0.23685
0.23715
0.23745
0.23775
0.23805
0.23835
0.23865
0.23895
0.23925
0.23955
0.23985
0.24015
0.24045
0.24075
0.24105
0.24135
0.24165
0.24195
0.24225
0.24255
0.24285
0.24315
0.24345
0.24375
0.24405
0.24435
0.24465
0.24495
0.24525
0.24555
0.24585
0.24615
0.24645
0.24675
0.24705
0.24735
0.24765
0.24795
0.24825
0.24855
0.24885
0.24915
0.24945
0.24975
0.25005
0.25035
0.25065
0.25095
0.25125
0.25155
0.25185
0.25215
0.25245
0.25275
0.25305
0.25335
0.25365
0.25395
0.25425
0.25455
0.25485
0.25515
0.25545
0.25575
0.25605
0.25635
0.25665
0.25695
0.25725
0.25755
0.25785
0.25815
0.25845
0.25875
0.25905
0.25935
0.25965
0.25995
0.26025
0.26055
0.26085
0.26115
0.26145
0.26175
0.26205
0.26235
0.26265
0.26295
0.26325
0.26355
0.26385
0.26415
0.26445
0.26475
0.26505
0.26535
0.26565
0.26595
0.26625
0.26655
0.26685
0.26715
0.26745
0.26775
0.26805
0.26835
0.26865
0.26895
0.26925
0.26955
0.26985
0.27015
0.27045
0.27075
0.27105
0.27135
0.27165
0.27195
0.27225
0.27255
0.27285
0.27315
0.27345
0.27375
0.27405
0.27435
0.27465
0.27495
0.27525
0.27555
0.27585
0.27615
0.27645
0.27675
0.27705
0.27735
0.27765
0.27795
0.27825
0.27855
0.27885
0.27915
0.27945
0.27975
0.28005
0.28035
0.28065
0.28095
0.28125
0.28155
0.28185
0.28215
0.28245
0.28275
0.28305
0.28335
0.28365
0.28395
0.28425
0.28455
0.28485
0.28515
0.28545
0.28575
0.28605
0.28635
0.28665
0.28695
0.28725
0.28755
0.28785
0.28815
0.28845
0.28875
0.28905
0.28935
0.28965
0.28995
0.29025
0.29055
0.29085
0.29115
0.29145
0.29175
0.29205
0.29235
0.29265
0.29295
0.29325
0.29355
0.29385
0.29415
0.29445
0.29475
0.29505
0.29535
0.29565
0.29595
0.29625
0.29655
0.29685
0.29715
0.29745
0.29775
0.29805
0.29835
0.29865
0.29895
0.29925
0.29955
0.29985
0.30015
0.30045
0.30075
0.30105
0.30135
0.30165
0.30195
0.30225
0.30255
0.30285
0.30315
0.30345
0.30375
0.30405
0.30435
0.30465
0.30495
0.30525
0.30555
0.30585
0.30615
0.30645
0.30675
0.30705
0.30735
0.30765
0.30795
0.30825
0.30855
0.30885
0.30915
0.30945
0.30975
0.31005
0.31035
0.31065
0.31095
0.31125
0.31155
0.31185
0.31215
0.31245
0.31275
0.31305
0.31335
0.31365
0.31395
0.31425
0.31455
0.31485
0.31515
0.31545
0.31575
0.31605
0.31635
0.31665
0.31695
0.31725
0.31755
0.31785
0.31815
0.31845
0.31875
0.31905
0.31935
0.31965
0.31995
0.32025
0.32055
0.32085
0.32115
0.32145
0.32175
0.32205
0.32235
0.32265
0.32295
0.32325
0.32355
0.32385
0.32415
0.32445
0.32475
0.32505
0.32535
0.32565
0.32595
0.32625
0.32655
0.32685
0.32715
0.32745
0.32775
0.32805
0.32835
0.32865
0.32895
0.32925
0.32955
0.32985
0.33015
0.33045
0.33075
0.33105
0.33135
0.33165
0.33195
0.33225
0.33255
0.33285
0.33315
0.33345
0.33375
0.33405
0.33435
0.33465
0.33495
0.33525
0.33555
0.33585
0.33615
0.33645
0.33675
0.33705
0.33735
0.33765
0.33795
0.33825
0.33855
0.33885
0.33915
0.33945
0.33975
0.34005
0.34035
0.34065
0.34095
0.34125
0.34155
0.34185
0.34215
0.34245
0.34275
0.34305
0.34335
0.34365
0.34395
0.34425
0.34455
0.34485
0.34515
0.34545
0.34575
0.34605
0.34635
0.34665
0.34695
0.34725
0.34755
0.34785
0.34815
0.34845
0.34875
0.34905
0.34935
0.34965
0.34995
0.35025
0.35055
0.35085
0.35115
0.35145
0.35175
0.35205
0.35235
0.35265
0.35295
0.35325
0.35355
0.35385
0.35415
0.35445
0.35475
0.35505
0.35535
0.35565
0.35595
0.35625
0.35655
0.35685
0.35715
0.35745
0.35775
0.35805
0.35835
0.35865
0.35895
0.35925
0.35955
0.35985
0.36015
0.36045
0.36075
0.36105
0.36135
0.36165
0.36195
0.36225
0.36255
0.36285
0.36315
0.36345
0.36375
0.36405
0.36435
0.36465
0.36495
0.36525
0.36555
0.36585
0.36615
0.36645
0.36675
0.36705
0.36735
0.36765
0.36795
0.36825
0.36855
0.36885
0.36915
0.36945
0.36975
0.37005
0.37035
0.37065
0.37095
0.37125
0.37155
0.37185
0.37215
0.37245
0.37275
0.37305
0.37335
0.37365
0.37395
0.37425
0.37455
0.37485
0.37515
0.37545
0.37575
0.37605
0.37635
0.37665
0.37695
0.37725
0.37755
0.37785
0.37815
0.37845
0.37875
0.37905
0.37935
0.37965
0.37995
0.38025
0.38055
0.38085
0.38115
0.38145
0.38175
0.38205
0.38235
0.38265
0.38295
0.38325
0.38355
0.38385
0.38415
0.38445
0.38475
0.38505
0.38535
0.38565
0.38595
0.38625
0.38655
0.38685
0.38715
0.38745
0.38775
0.38805
0.38835
0.38865
0.38895
0.38925
0.38955
0.38985
)
;

boundaryField
{
    wall_bottom
    {
        type            calculated;
        value           uniform 0;
    }
    wall_top
    {
        type            calculated;
        value           uniform 0.39;
    }
    front1
    {
        type            cyclic;
    }
    back1
    {
        type            cyclic;
    }
    left1
    {
        type            cyclic;
    }
    right1
    {
        type            cyclic;
    }
    front2
    {
        type            cyclic;
    }
    back2
    {
        type            cyclic;
    }
    left2
    {
        type            cyclic;
    }
    right2
    {
        type            cyclic;
    }
}


// ************************************************************************* //
