/*--------------------------------*- C++ -*----------------------------------*\
| =========                 |                                                 |
| \\      /  F ield         | OpenFOAM: The Open Source CFD Toolbox           |
|  \\    /   O peration     | Version:  2.4.x                                 |
|   \\  /    A nd           | Web:      www.OpenFOAM.org                      |
|    \\/     M anipulation  |                                                 |
\*---------------------------------------------------------------------------*/
FoamFile
{
    version     2.0;
    format      ascii;
    class       volVectorField;
    location    "0";
    object      impParticleForces;
}
// * * * * * * * * * * * * * * * * * * * * * * * * * * * * * * * * * * * * * //

dimensions      [1 1 -2 0 0 0 0];

internalField   nonuniform List<vector> 
1300
(
(4.84933e-05 -2.95251e-08 8.37649e-08)
(4.84419e-05 -3.00002e-08 8.67613e-08)
(4.8252e-05 -3.17564e-08 9.78411e-08)
(4.79764e-05 -3.43022e-08 1.1397e-07)
(4.76944e-05 -3.68862e-08 1.31522e-07)
(4.75141e-05 -3.85029e-08 1.44507e-07)
(4.72918e-05 -4.04651e-08 1.62078e-07)
(4.70973e-05 -4.21415e-08 1.79395e-07)
(4.69455e-05 -4.33282e-08 1.98881e-07)
(4.68289e-05 -4.41849e-08 2.16654e-07)
(4.67379e-05 -4.46169e-08 2.33256e-07)
(4.66799e-05 -4.44524e-08 2.48699e-07)
(4.66548e-05 -4.35637e-08 2.64335e-07)
(4.66367e-05 -4.29726e-08 2.73727e-07)
(4.65936e-05 -4.26568e-08 2.78841e-07)
(4.65104e-05 -4.24387e-08 2.8269e-07)
(4.64592e-05 -4.23604e-08 2.84447e-07)
(4.64209e-05 -4.25142e-08 2.84349e-07)
(4.6358e-05 -4.29928e-08 2.82932e-07)
(4.63313e-05 -4.37189e-08 2.80223e-07)
(4.63607e-05 -4.51138e-08 2.7445e-07)
(4.64374e-05 -4.76992e-08 2.63558e-07)
(4.64711e-05 -5.0119e-08 2.52144e-07)
(4.64473e-05 -5.22257e-08 2.40582e-07)
(4.63808e-05 -5.41683e-08 2.28559e-07)
(4.63053e-05 -5.56533e-08 2.1521e-07)
(4.62563e-05 -5.51903e-08 2.02286e-07)
(4.62235e-05 -5.33735e-08 1.89172e-07)
(4.62041e-05 -5.13273e-08 1.78516e-07)
(4.61968e-05 -4.77012e-08 1.66005e-07)
(4.61981e-05 -4.32314e-08 1.52989e-07)
(4.62011e-05 -3.96435e-08 1.42999e-07)
(4.62024e-05 -3.80636e-08 1.38614e-07)
(4.60011e-05 5.78667e-09 1.02579e-07)
(4.58972e-05 3.11783e-08 8.45954e-08)
(4.58842e-05 4.62873e-08 8.31251e-08)
(4.5861e-05 7.24425e-08 8.05913e-08)
(4.58241e-05 1.03377e-07 7.7791e-08)
(4.57737e-05 1.29673e-07 7.57965e-08)
(4.56958e-05 1.58098e-07 7.41199e-08)
(4.55925e-05 1.89315e-07 7.26388e-08)
(4.54397e-05 2.22355e-07 7.19532e-08)
(4.52598e-05 2.54796e-07 7.18883e-08)
(4.50653e-05 2.81489e-07 7.91347e-08)
(4.48332e-05 2.9946e-07 1.02013e-07)
(4.45372e-05 3.07448e-07 1.4701e-07)
(4.42975e-05 3.08513e-07 1.96312e-07)
(4.42368e-05 2.99766e-07 2.66273e-07)
(4.43515e-05 2.7472e-07 4.03145e-07)
(4.45146e-05 2.49349e-07 5.38522e-07)
(4.47495e-05 2.31419e-07 6.56847e-07)
(4.53144e-05 2.03897e-07 8.81642e-07)
(4.61564e-05 1.74957e-07 1.18041e-06)
(4.73477e-05 1.59507e-07 1.52906e-06)
(4.95005e-05 1.48364e-07 2.10603e-06)
(5.33778e-05 1.56192e-07 2.90176e-06)
(5.95415e-05 2.07331e-07 3.80687e-06)
(6.78365e-05 2.951e-07 4.84821e-06)
(7.63912e-05 3.95452e-07 5.89329e-06)
(8.00292e-05 4.56244e-07 6.46216e-06)
(7.66385e-05 4.57959e-07 6.33293e-06)
(7.08646e-05 4.37598e-07 5.95294e-06)
(6.18895e-05 3.89108e-07 5.24661e-06)
(4.76122e-05 3.01715e-07 4.05256e-06)
(3.41793e-05 2.16713e-07 2.91003e-06)
(2.6366e-05 1.67172e-07 2.2448e-06)
(1.82996e-05 1.16028e-07 1.55803e-06)
(5.83816e-06 3.70165e-08 4.97061e-07)
(5.51152e-06 3.49455e-08 4.69251e-07)
(4.76856e-06 3.02348e-08 4.05996e-07)
(3.82203e-06 2.42334e-08 3.25408e-07)
(2.98228e-06 1.8909e-08 2.53911e-07)
(2.37594e-06 1.50645e-08 2.02288e-07)
(1.70315e-06 1.07987e-08 1.45006e-07)
(1.17879e-06 7.47413e-09 1.00364e-07)
(8.42421e-07 5.34137e-09 7.17243e-08)
(6.05272e-07 3.83771e-09 5.15331e-08)
(4.13957e-07 2.62468e-09 3.52445e-08)
(2.77391e-07 1.75878e-09 2.36171e-08)
(1.88769e-07 1.19688e-09 1.60719e-08)
(1.39233e-07 8.82797e-10 1.18543e-08)
(1.04795e-07 6.64444e-10 8.92222e-09)
(7.26114e-08 4.60389e-10 6.18214e-09)
(5.77248e-08 3.66001e-10 4.9147e-09)
(4.64636e-08 2.94601e-10 3.95592e-09)
(2.94996e-08 1.8704e-10 2.5116e-09)
(2.05416e-08 1.30242e-10 1.74891e-09)
(1.58084e-08 1.00231e-10 1.34592e-09)
(1.00407e-08 6.36625e-11 8.54867e-10)
(6.54317e-09 4.14866e-11 5.57086e-10)
(4.59165e-09 2.91132e-11 3.90934e-10)
(3.62594e-09 2.29902e-11 3.08714e-10)
(2.65698e-09 1.68463e-11 2.26215e-10)
(2.02198e-09 1.28203e-11 1.72152e-10)
(1.47258e-09 9.33678e-12 1.25375e-10)
(1.1273e-09 7.14759e-12 9.59788e-11)
(8.05466e-10 5.10701e-12 6.85777e-11)
(5.71984e-10 3.62664e-12 4.86989e-11)
(4.14326e-10 2.62701e-12 3.5276e-11)
(3.71688e-10 2.35667e-12 3.16457e-11)
(8.94324e-11 5.67043e-13 7.61431e-12)
(8.67715e-11 5.50171e-13 7.38775e-12)
(7.69322e-11 4.87786e-13 6.55003e-12)
(6.26757e-11 3.97393e-13 5.33623e-12)
(4.82902e-11 3.06182e-13 4.11145e-12)
(3.94359e-11 2.50041e-13 3.35759e-12)
(2.88224e-11 1.82747e-13 2.45394e-12)
(1.99228e-11 1.2632e-13 1.69624e-12)
(1.41503e-11 8.97194e-14 1.20477e-12)
(1.02529e-11 6.50079e-14 8.72938e-13)
(7.09666e-12 4.49959e-14 6.04211e-13)
(4.77601e-12 3.0282e-14 4.06631e-13)
(3.20976e-12 2.03514e-14 2.73281e-13)
(2.31967e-12 1.47078e-14 1.97498e-13)
(1.76293e-12 1.11778e-14 1.50097e-13)
(1.22581e-12 7.77226e-15 1.04367e-13)
(9.39643e-13 5.95779e-15 8.00019e-14)
(7.73369e-13 4.90353e-15 6.58451e-14)
(5.19015e-13 3.2908e-15 4.41893e-14)
(3.49073e-13 2.21329e-15 2.97201e-14)
(2.65088e-13 1.68078e-15 2.25696e-14)
(1.78148e-13 1.12955e-15 1.51676e-14)
(1.14892e-13 7.28471e-16 9.78193e-15)
(7.82904e-14 4.96397e-16 6.66566e-15)
(5.98064e-14 3.792e-16 5.09195e-15)
(4.48404e-14 2.84308e-16 3.81773e-15)
(3.37635e-14 2.14077e-16 2.87464e-15)
(2.49443e-14 1.58159e-16 2.12378e-15)
(1.87988e-14 1.19194e-16 1.60055e-15)
(1.37822e-14 8.73857e-17 1.17343e-15)
(9.8154e-15 6.22341e-17 8.3569e-16)
(7.05238e-15 4.47154e-17 6.00445e-16)
(5.84813e-15 3.70799e-17 4.97913e-16)
(2.78311e-15 1.76462e-17 2.36955e-16)
(1.32941e-15 8.42911e-18 1.13187e-16)
(1.21723e-15 7.71786e-18 1.03636e-16)
(1.02368e-15 6.49062e-18 8.71568e-17)
(8.05727e-16 5.1087e-18 6.86002e-17)
(6.41999e-16 4.07059e-18 5.46603e-17)
(4.91781e-16 3.11813e-18 4.18706e-17)
(3.46916e-16 2.19963e-18 2.95368e-17)
(2.42839e-16 1.53973e-18 2.06755e-17)
(1.74603e-16 1.10708e-18 1.48658e-17)
(1.23399e-16 7.82413e-19 1.05063e-17)
(8.38027e-17 5.31354e-19 7.13507e-18)
(5.62241e-17 3.5649e-19 4.78699e-18)
(3.92859e-17 2.49093e-19 3.34485e-18)
(2.93693e-17 1.86217e-19 2.50055e-18)
(2.13381e-17 1.35295e-19 1.81676e-18)
(1.54686e-17 9.80788e-20 1.31701e-18)
(1.24966e-17 7.92354e-20 1.06398e-18)
(9.27413e-18 5.8803e-20 7.89613e-19)
(6.03579e-18 3.82702e-20 5.13897e-19)
(4.36944e-18 2.77047e-20 3.72023e-19)
(3.16655e-18 2.00777e-20 2.69606e-19)
(2.02425e-18 1.28348e-20 1.72348e-19)
(1.34488e-18 8.52725e-21 1.14506e-19)
(9.80523e-19 6.21705e-21 8.34836e-20)
(7.56146e-19 4.79437e-21 6.43795e-20)
(5.60846e-19 3.55606e-21 4.77514e-20)
(4.21019e-19 2.66949e-21 3.58463e-20)
(3.1128e-19 1.97369e-21 2.6503e-20)
(2.33549e-19 1.48084e-21 1.98849e-20)
(1.66449e-19 1.05539e-21 1.4172e-20)
(1.18631e-19 7.52193e-22 1.01006e-20)
(9.13578e-20 5.79269e-22 7.77854e-21)
(6.27506e-20 3.97884e-22 5.34287e-21)
(1.85505e-20 1.17631e-22 1.57962e-21)
(1.81776e-20 1.15267e-22 1.54787e-21)
(1.62294e-20 1.02913e-22 1.38198e-21)
(1.25074e-20 7.93115e-23 1.06504e-21)
(9.71947e-21 6.1633e-23 8.27641e-22)
(8.9446e-21 5.67194e-23 7.61658e-22)
(6.06518e-21 3.84605e-23 5.16469e-22)
(4.03094e-21 2.5561e-23 3.43248e-22)
(3.52571e-21 2.23573e-23 3.00226e-22)
(2.30541e-21 1.46191e-23 1.96313e-22)
(1.45327e-21 9.21554e-24 1.23751e-22)
(1.06211e-21 6.73515e-24 9.04433e-23)
(8.42098e-22 5.33999e-24 7.17085e-23)
(5.92765e-22 3.7589e-24 5.04767e-23)
(3.38529e-22 2.14671e-24 2.88275e-23)
(3.00554e-22 1.9059e-24 2.55937e-23)
(2.04132e-22 1.29446e-24 1.73829e-23)
(1.49728e-22 9.4947e-25 1.275e-23)
(1.17285e-22 7.43741e-25 9.98736e-24)
(9.29691e-23 5.89546e-25 7.91676e-24)
(5.60319e-23 3.55318e-25 4.77143e-24)
(3.88699e-23 2.46487e-25 3.31e-24)
(2.98117e-23 1.89046e-25 2.53865e-24)
(2.03926e-23 1.29317e-25 1.73656e-24)
(1.14277e-23 7.24678e-26 9.73146e-25)
(1.00699e-23 6.38574e-26 8.57521e-25)
(7.28629e-24 4.62055e-26 6.20478e-25)
(5.4658e-24 3.46611e-26 4.65452e-25)
(4.11886e-24 2.61196e-26 3.50752e-25)
(3.26169e-24 2.0684e-26 2.77759e-25)
(2.11365e-24 1.34037e-26 1.79995e-25)
(1.5345e-24 9.73097e-27 1.30676e-25)
(1.28043e-24 8.11986e-27 1.0904e-25)
(5.70359e-25 3.61695e-27 4.85713e-26)
(3.86553e-25 2.45134e-27 3.29185e-26)
(2.5554e-25 1.62052e-27 2.17616e-26)
(1.93453e-25 1.22679e-27 1.64744e-26)
(1.61352e-25 1.02322e-27 1.37406e-26)
(1.36663e-25 8.66652e-28 1.16381e-26)
(1.05375e-25 6.68242e-28 8.97371e-27)
(6.92393e-26 4.39088e-28 5.89644e-27)
(5.01849e-26 3.18254e-28 4.27378e-27)
(4.11985e-26 2.61266e-28 3.5085e-27)
(2.60964e-26 1.65495e-28 2.22241e-27)
(1.73991e-26 1.10341e-28 1.48174e-27)
(1.31849e-26 8.36153e-29 1.12286e-27)
(9.46096e-27 5.99989e-29 8.05719e-28)
(6.3351e-27 4.01755e-29 5.39512e-28)
(4.46862e-27 2.83388e-29 3.80559e-28)
(3.66928e-27 2.32697e-29 3.12486e-28)
(2.3909e-27 1.51626e-29 2.03616e-28)
(1.86283e-27 1.18137e-29 1.58644e-28)
(1.5926e-27 1.00999e-29 1.3563e-28)
(8.32263e-28 5.27805e-30 7.08778e-29)
(6.82914e-28 4.33091e-30 5.8159e-29)
(4.95296e-28 3.14108e-30 4.21811e-29)
(3.11471e-28 1.97531e-30 2.65262e-29)
(2.47539e-28 1.56987e-30 2.10816e-29)
(1.44444e-28 9.16059e-31 1.23016e-29)
(1.25732e-28 7.9739e-31 1.0708e-29)
(8.94969e-29 5.67585e-31 7.62206e-30)
(6.70787e-29 4.25409e-31 5.7128e-30)
(5.19924e-29 3.29732e-31 4.42797e-30)
(3.50842e-29 2.22502e-31 2.98798e-30)
(3.09542e-29 1.9631e-31 2.63624e-30)
(1.59157e-29 1.00937e-31 1.35548e-30)
(1.36393e-29 8.65003e-32 1.16161e-30)
(6.43244e-30 4.07947e-32 5.47832e-31)
(5.1069e-30 3.23881e-32 4.34941e-31)
(3.20056e-30 2.02982e-32 2.72585e-31)
(2.50194e-30 1.58675e-32 2.13085e-31)
(1.94811e-30 1.2355e-32 1.65916e-31)
(1.54296e-30 9.78556e-33 1.31411e-31)
(1.35468e-30 8.59154e-33 1.15376e-31)
(8.31796e-31 5.27535e-33 7.0843e-32)
(6.88301e-31 4.36529e-33 5.86218e-32)
(4.04906e-31 2.56797e-33 3.44855e-32)
(3.60035e-31 2.2834e-33 3.06639e-32)
(2.15798e-31 1.36862e-33 1.83794e-32)
(2.0298e-31 1.28733e-33 1.72877e-32)
(7.56148e-32 4.79563e-34 6.44011e-33)
(6.88553e-32 4.36694e-34 5.86441e-33)
(5.27759e-32 3.34716e-34 4.49494e-33)
(5.20476e-32 3.30097e-34 4.43291e-33)
(2.52652e-32 1.60238e-34 2.15185e-33)
(2.3534e-32 1.49258e-34 2.00441e-33)
(1.45163e-32 9.20663e-35 1.23638e-33)
(1.34826e-32 8.55102e-35 1.14834e-33)
(7.27522e-33 4.61417e-35 6.19646e-34)
(6.00359e-33 3.80767e-35 5.11339e-34)
(3.70779e-33 2.3516e-35 3.15801e-34)
(2.89035e-33 1.83316e-35 2.46178e-34)
(1.94202e-33 1.2317e-35 1.65407e-34)
(1.35886e-33 8.61838e-36 1.15738e-34)
(1.13442e-33 7.19492e-36 9.6622e-35)
(8.86385e-34 5.62179e-36 7.5496e-35)
(7.15807e-34 4.53992e-36 6.09674e-35)
(3.26241e-34 2.06916e-36 2.77872e-35)
(3.09439e-34 1.96259e-36 2.63561e-35)
(1.69794e-34 1.07691e-36 1.44621e-35)
(1.69794e-34 1.07691e-36 1.44621e-35)
(7.04721e-35 4.46968e-37 6.00246e-36)
(5.73526e-35 3.63758e-37 4.88502e-36)
(4.14314e-35 2.62778e-37 3.52894e-36)
(3.21592e-35 2.03969e-37 2.73918e-36)
(2.66412e-35 1.68972e-37 2.26918e-36)
(1.65266e-35 1.04821e-37 1.40767e-36)
(1.61895e-35 1.02683e-37 1.37896e-36)
(9.20519e-36 5.83843e-38 7.84059e-37)
(9.20519e-36 5.83843e-38 7.84059e-37)
(5.23474e-36 3.32017e-38 4.45875e-37)
(3.61933e-36 2.2956e-38 3.08282e-37)
(2.88028e-36 1.82685e-38 2.45332e-37)
(1.489e-36 9.44421e-39 1.26829e-37)
(1.489e-36 9.44421e-39 1.26829e-37)
(7.52059e-37 4.77009e-39 6.4059e-38)
(7.16555e-37 4.5449e-39 6.10349e-38)
(5.34935e-37 3.39294e-39 4.5565e-38)
(3.75036e-37 2.37875e-39 3.19451e-38)
(3.56254e-37 2.25962e-39 3.03453e-38)
(1.39816e-37 8.86821e-40 1.19094e-38)
(1.39816e-37 8.86821e-40 1.19094e-38)
(9.0258e-38 5.72487e-40 7.68811e-39)
(5.69176e-38 3.61017e-40 4.84822e-39)
(5.42985e-38 3.44404e-40 4.62512e-39)
(2.62261e-38 1.66347e-40 2.23394e-39)
(2.62261e-38 1.66347e-40 2.23394e-39)
(1.89247e-38 1.20036e-40 1.61201e-39)
(1.27558e-38 8.09079e-41 1.08655e-39)
(1.27558e-38 8.09079e-41 1.08655e-39)
(5.46983e-39 3.46943e-41 4.65928e-40)
(5.22538e-39 3.31438e-41 4.45105e-40)
(3.92031e-39 2.4866e-41 3.33938e-40)
(1.61479e-39 1.02425e-41 1.37551e-40)
(1.61479e-39 1.02425e-41 1.37551e-40)
(8.91169e-40 5.65263e-42 7.59119e-41)
(6.14491e-40 3.89768e-42 5.2344e-41)
(5.99503e-40 3.80261e-42 5.10673e-41)
(3.3164e-40 2.10358e-42 2.82502e-41)
(3.3164e-40 2.10358e-42 2.82502e-41)
(2.67026e-40 1.69374e-42 2.27462e-41)
(1.46934e-40 9.32001e-43 1.25164e-41)
(1.46934e-40 9.32001e-43 1.25164e-41)
(8.95783e-41 5.68195e-43 7.63063e-42)
(5.34423e-41 3.38986e-43 4.55244e-42)
(5.34423e-41 3.38986e-43 4.55244e-42)
(2.37018e-41 1.50343e-43 2.01905e-42)
(1.81874e-41 1.15365e-43 1.54931e-42)
(1.77906e-41 1.12848e-43 1.51551e-42)
(8.19412e-42 5.19767e-44 6.98027e-43)
(8.19412e-42 5.19767e-44 6.98027e-43)
(7.22731e-42 4.58441e-44 6.15668e-43)
(3.39432e-42 2.15308e-44 2.8915e-43)
(3.39432e-42 2.15308e-44 2.8915e-43)
(2.71185e-42 1.72018e-44 2.31013e-43)
(1.31573e-42 8.34597e-45 1.12083e-43)
(1.31573e-42 8.34597e-45 1.12083e-43)
(9.42674e-43 5.9796e-45 8.03036e-44)
(4.27488e-43 2.71167e-45 3.64167e-44)
(4.27488e-43 2.71167e-45 3.64167e-44)
(3.10401e-43 1.96896e-45 2.64424e-44)
(1.81495e-43 1.15128e-45 1.54612e-44)
(1.81495e-43 1.15128e-45 1.54612e-44)
(1.19664e-43 7.59068e-46 1.0194e-44)
(5.6796e-44 3.60281e-46 4.83846e-45)
(5.6796e-44 3.60281e-46 4.83846e-45)
(3.65314e-44 2.31739e-46 3.11221e-45)
(1.45035e-44 9.20124e-47 1.23574e-45)
(1.45035e-44 9.20124e-47 1.23574e-45)
(1.00872e-44 6.39964e-47 8.59486e-46)
(4.12329e-45 2.61629e-47 3.51385e-46)
(4.12329e-45 2.61629e-47 3.51385e-46)
(3.43074e-45 2.17686e-47 2.92367e-46)
(2.05162e-45 1.3018e-47 1.74842e-46)
(2.05162e-45 1.3018e-47 1.74842e-46)
(1.76049e-45 1.11707e-47 1.50032e-46)
(6.32998e-46 4.01653e-48 5.39449e-47)
(6.32998e-46 4.01653e-48 5.39449e-47)
(6.1851e-46 3.9246e-48 5.27102e-47)
(2.49242e-46 1.58151e-48 2.12409e-47)
(2.49242e-46 1.58151e-48 2.12409e-47)
(2.49242e-46 1.58151e-48 2.12409e-47)
(1.01465e-46 6.43827e-49 8.64708e-48)
(7.15044e-47 4.53719e-49 6.09379e-48)
(7.15044e-47 4.53719e-49 6.09379e-48)
(4.70217e-47 2.98368e-49 4.00732e-48)
(2.97093e-47 1.88516e-49 2.53192e-48)
(2.97093e-47 1.88516e-49 2.53192e-48)
(2.31252e-47 1.46738e-49 1.97081e-48)
(7.78509e-48 4.93999e-50 6.63482e-49)
(7.78509e-48 4.93999e-50 6.63482e-49)
(7.78509e-48 4.93999e-50 6.63482e-49)
(2.98086e-48 1.89148e-50 2.54043e-49)
(2.85534e-48 1.81183e-50 2.43345e-49)
(2.85534e-48 1.81183e-50 2.43345e-49)
(1.669e-48 1.05905e-50 1.4224e-49)
(9.04006e-49 5.73632e-51 7.70438e-50)
(9.04006e-49 5.73632e-51 7.70438e-50)
(7.81496e-49 4.95894e-51 6.66029e-50)
(2.91749e-49 1.8513e-51 2.48645e-50)
(2.91749e-49 1.8513e-51 2.48645e-50)
(2.91749e-49 1.8513e-51 2.48645e-50)
(1.18756e-49 7.53571e-52 1.01211e-50)
(6.12206e-50 3.8848e-52 5.21762e-51)
(6.12206e-50 3.8848e-52 5.21762e-51)
(5.23939e-50 3.3247e-52 4.46535e-51)
(2.70649e-50 1.71743e-52 2.30665e-51)
(2.70649e-50 1.71743e-52 2.30665e-51)
(2.70649e-50 1.71743e-52 2.30665e-51)
(1.34238e-50 8.51824e-53 1.14407e-51)
(8.21305e-51 5.2117e-53 6.99975e-52)
(8.21305e-51 5.2117e-53 6.99975e-52)
(7.3602e-51 4.67051e-53 6.27289e-52)
(2.34746e-51 1.48962e-53 2.00069e-52)
(2.34746e-51 1.48962e-53 2.00069e-52)
(2.34746e-51 1.48962e-53 2.00069e-52)
(1.49605e-51 9.49345e-54 1.27505e-52)
(7.20484e-52 4.57199e-54 6.14059e-53)
(7.20484e-52 4.57199e-54 6.14059e-53)
(7.20484e-52 4.57199e-54 6.14059e-53)
(2.83827e-52 1.80109e-54 2.41902e-53)
(2.10838e-52 1.33792e-54 1.79695e-53)
(2.10838e-52 1.33792e-54 1.79695e-53)
(1.8898e-52 1.19922e-54 1.61066e-53)
(6.03912e-53 3.83228e-55 5.14712e-54)
(6.03912e-53 3.83228e-55 5.14712e-54)
(6.03912e-53 3.83228e-55 5.14712e-54)
(4.3323e-53 2.74918e-55 3.69241e-54)
(1.64296e-53 1.04259e-55 1.4003e-54)
(1.64296e-53 1.04259e-55 1.4003e-54)
(1.64296e-53 1.04259e-55 1.4003e-54)
(9.70644e-54 6.15952e-56 8.27284e-55)
(4.93959e-54 3.13457e-56 4.21004e-55)
(4.93959e-54 3.13457e-56 4.21004e-55)
(4.93959e-54 3.13457e-56 4.21004e-55)
(2.01084e-54 1.27605e-56 1.71386e-55)
(9.56831e-55 6.07192e-57 8.15521e-56)
(9.56831e-55 6.07192e-57 8.15521e-56)
(9.56831e-55 6.07192e-57 8.15521e-56)
(4.2862e-55 2.71998e-57 3.6532e-56)
(3.26774e-55 2.07368e-57 2.78515e-56)
(3.26774e-55 2.07368e-57 2.78515e-56)
(3.26774e-55 2.07368e-57 2.78515e-56)
(9.37654e-56 5.95029e-58 7.99183e-57)
(6.60059e-56 4.18869e-58 5.62584e-57)
(6.60059e-56 4.18869e-58 5.62584e-57)
(6.60059e-56 4.18869e-58 5.62584e-57)
(2.71691e-56 1.72413e-58 2.3157e-57)
(2.28705e-56 1.45135e-58 1.94932e-57)
(2.28705e-56 1.45135e-58 1.94932e-57)
(2.28705e-56 1.45135e-58 1.94932e-57)
(7.50354e-57 4.76174e-59 6.39552e-58)
(4.96367e-57 3.14995e-59 4.23071e-58)
(4.96367e-57 3.14995e-59 4.23071e-58)
(4.96367e-57 3.14995e-59 4.23071e-58)
(2.39432e-57 1.51944e-59 2.04077e-58)
(1.61113e-57 1.02243e-59 1.37323e-58)
(1.61113e-57 1.02243e-59 1.37323e-58)
(1.61113e-57 1.02243e-59 1.37323e-58)
(8.03282e-58 5.09768e-60 6.84671e-59)
(3.17376e-58 2.0141e-60 2.70515e-59)
(3.17376e-58 2.0141e-60 2.70515e-59)
(3.17376e-58 2.0141e-60 2.70515e-59)
(2.17235e-58 1.3786e-60 1.8516e-59)
(8.53767e-59 5.4181e-61 7.2771e-60)
(8.53767e-59 5.4181e-61 7.2771e-60)
(8.53767e-59 5.4181e-61 7.2771e-60)
(7.18518e-59 4.5598e-61 6.1243e-60)
(1.32168e-59 8.3876e-62 1.12655e-60)
(1.32168e-59 8.3876e-62 1.12655e-60)
(1.32168e-59 8.3876e-62 1.12655e-60)
(1.32168e-59 8.3876e-62 1.12655e-60)
(5.32065e-60 3.37658e-62 4.53512e-61)
(4.35618e-60 2.76451e-62 3.71305e-61)
(4.35618e-60 2.76451e-62 3.71305e-61)
(4.35618e-60 2.76451e-62 3.71305e-61)
(2.59768e-60 1.64854e-62 2.21417e-61)
(1.11273e-60 7.06163e-63 9.48457e-62)
(1.11273e-60 7.06163e-63 9.48457e-62)
(1.11273e-60 7.06163e-63 9.48457e-62)
(9.84386e-61 6.24713e-63 8.39061e-62)
(1.94916e-61 1.23699e-63 1.66143e-62)
(1.94916e-61 1.23699e-63 1.66143e-62)
(1.94916e-61 1.23699e-63 1.66143e-62)
(1.94916e-61 1.23699e-63 1.66143e-62)
(9.75847e-62 6.193e-64 8.31795e-63)
(5.25145e-62 3.33273e-64 4.47625e-63)
(5.25145e-62 3.33273e-64 4.47625e-63)
(5.25145e-62 3.33273e-64 4.47625e-63)
(4.53271e-62 2.8766e-64 3.86361e-63)
(1.08471e-62 6.88391e-65 9.24591e-64)
(1.08471e-62 6.88391e-65 9.24591e-64)
(1.08471e-62 6.88391e-65 9.24591e-64)
(1.08471e-62 6.88391e-65 9.24591e-64)
(5.79457e-63 3.67742e-65 4.93922e-64)
(2.51168e-63 1.59399e-65 2.14093e-64)
(2.51168e-63 1.59399e-65 2.14093e-64)
(2.51168e-63 1.59399e-65 2.14093e-64)
(2.51168e-63 1.59399e-65 2.14093e-64)
(4.72648e-64 2.9996e-66 4.02883e-65)
(4.39053e-64 2.7864e-66 3.74247e-65)
(4.39053e-64 2.7864e-66 3.74247e-65)
(4.39053e-64 2.7864e-66 3.74247e-65)
(3.30638e-64 2.09836e-66 2.81835e-65)
(8.32758e-65 5.28504e-67 7.09846e-66)
(8.32758e-65 5.28504e-67 7.09846e-66)
(8.32758e-65 5.28504e-67 7.09846e-66)
(8.32758e-65 5.28504e-67 7.09846e-66)
(4.82546e-65 3.06244e-67 4.11324e-66)
(2.16473e-65 1.37383e-67 1.84523e-66)
(2.16473e-65 1.37383e-67 1.84523e-66)
(2.16473e-65 1.37383e-67 1.84523e-66)
(2.16473e-65 1.37383e-67 1.84523e-66)
(7.5785e-66 4.80965e-68 6.45998e-67)
(3.46341e-66 2.19805e-68 2.95226e-67)
(3.46341e-66 2.19805e-68 2.95226e-67)
(3.46341e-66 2.19805e-68 2.95226e-67)
(3.46341e-66 2.19805e-68 2.95226e-67)
(1.09734e-66 6.96423e-69 9.35385e-68)
(8.92461e-67 5.66399e-69 7.60747e-68)
(8.92461e-67 5.66399e-69 7.60747e-68)
(8.92461e-67 5.66399e-69 7.60747e-68)
(8.86741e-67 5.62769e-69 7.55871e-68)
(1.18431e-67 7.51625e-70 1.00953e-68)
(1.18431e-67 7.51625e-70 1.00953e-68)
(1.18431e-67 7.51625e-70 1.00953e-68)
(1.18431e-67 7.51625e-70 1.00953e-68)
(1.15514e-67 7.33115e-70 9.84668e-69)
(3.31471e-68 2.1037e-70 2.82554e-69)
(3.31471e-68 2.1037e-70 2.82554e-69)
(3.31471e-68 2.1037e-70 2.82554e-69)
(3.31471e-68 2.1037e-70 2.82554e-69)
(3.31471e-68 2.1037e-70 2.82554e-69)
(6.51108e-70 4.13343e-72 5.55211e-71)
(6.51108e-70 4.13343e-72 5.55211e-71)
(6.51108e-70 4.13343e-72 5.55211e-71)
(6.51108e-70 4.13343e-72 5.55211e-71)
(6.51108e-70 4.13343e-72 5.55211e-71)
(3.26939e-70 2.07551e-72 2.78787e-71)
(3.09696e-70 1.96605e-72 2.64084e-71)
(3.09696e-70 1.96605e-72 2.64084e-71)
(3.09696e-70 1.96605e-72 2.64084e-71)
(3.09696e-70 1.96605e-72 2.64084e-71)
(7.08767e-71 4.49949e-73 6.04381e-72)
(4.40431e-71 2.79601e-73 3.75566e-72)
(4.40431e-71 2.79601e-73 3.75566e-72)
(4.40431e-71 2.79601e-73 3.75566e-72)
(4.40431e-71 2.79601e-73 3.75566e-72)
(1.59894e-71 1.01506e-73 1.36345e-72)
(1.09798e-71 6.9703e-74 9.36268e-73)
(1.09798e-71 6.9703e-74 9.36268e-73)
(1.09798e-71 6.9703e-74 9.36268e-73)
(1.09798e-71 6.9703e-74 9.36268e-73)
(3.63693e-72 2.30885e-74 3.1013e-73)
(1.77798e-72 1.12873e-74 1.51614e-73)
(1.77798e-72 1.12873e-74 1.51614e-73)
(1.77798e-72 1.12873e-74 1.51614e-73)
(1.77798e-72 1.12873e-74 1.51614e-73)
(6.44e-73 4.08836e-75 5.4916e-74)
(2.60899e-73 1.65629e-75 2.22477e-74)
(2.60899e-73 1.65629e-75 2.22477e-74)
(2.60899e-73 1.65629e-75 2.22477e-74)
(2.60899e-73 1.65629e-75 2.22477e-74)
(1.21406e-73 7.70736e-76 1.03527e-74)
(6.07572e-74 3.85713e-76 5.18099e-75)
(6.07572e-74 3.85713e-76 5.18099e-75)
(6.07572e-74 3.85713e-76 5.18099e-75)
(6.07572e-74 3.85713e-76 5.18099e-75)
(2.7022e-74 1.71547e-76 2.30427e-75)
(8.57308e-75 5.44254e-77 7.31057e-76)
(8.57308e-75 5.44254e-77 7.31057e-76)
(8.57308e-75 5.44254e-77 7.31057e-76)
(8.57308e-75 5.44254e-77 7.31057e-76)
(4.61027e-75 2.92679e-77 3.93134e-76)
(1.92362e-75 1.22119e-77 1.64034e-76)
(1.92362e-75 1.22119e-77 1.64034e-76)
(1.92362e-75 1.22119e-77 1.64034e-76)
(1.92362e-75 1.22119e-77 1.64034e-76)
(1.04952e-75 6.66276e-78 8.94963e-77)
(3.211e-76 2.03848e-78 2.73815e-77)
(3.211e-76 2.03848e-78 2.73815e-77)
(3.211e-76 2.03848e-78 2.73815e-77)
(3.211e-76 2.03848e-78 2.73815e-77)
(1.90543e-76 1.20965e-78 1.62483e-77)
(5.73205e-77 3.63896e-79 4.88798e-78)
(5.73205e-77 3.63896e-79 4.88798e-78)
(5.73205e-77 3.63896e-79 4.88798e-78)
(5.73205e-77 3.63896e-79 4.88798e-78)
(3.69224e-77 2.344e-79 3.14854e-78)
(1.14248e-77 7.25297e-80 9.74245e-79)
(1.14248e-77 7.25297e-80 9.74245e-79)
(1.14248e-77 7.25297e-80 9.74245e-79)
(1.14248e-77 7.25297e-80 9.74245e-79)
(7.64844e-78 4.85557e-80 6.52218e-79)
(1.83866e-78 1.16727e-80 1.56792e-79)
(1.83866e-78 1.16727e-80 1.56792e-79)
(1.83866e-78 1.16727e-80 1.56792e-79)
(1.83866e-78 1.16727e-80 1.56792e-79)
(1.33941e-78 8.5032e-81 1.14218e-79)
(3.84951e-79 2.44386e-81 3.28267e-80)
(3.84951e-79 2.44386e-81 3.28267e-80)
(3.84951e-79 2.44386e-81 3.28267e-80)
(3.84951e-79 2.44386e-81 3.28267e-80)
(2.84565e-79 1.80656e-81 2.42663e-80)
(4.22557e-80 2.68261e-82 3.60336e-81)
(4.22557e-80 2.68261e-82 3.60336e-81)
(4.22557e-80 2.68261e-82 3.60336e-81)
(4.22557e-80 2.68261e-82 3.60336e-81)
(3.50532e-80 2.22536e-82 2.98916e-81)
(1.25453e-80 7.96444e-83 1.0698e-81)
(1.25453e-80 7.96444e-83 1.0698e-81)
(1.25453e-80 7.96444e-83 1.0698e-81)
(1.25453e-80 7.96444e-83 1.0698e-81)
(1.04395e-80 6.62756e-83 8.90228e-82)
(1.57297e-81 9.9861e-84 1.34137e-82)
(1.57297e-81 9.9861e-84 1.34137e-82)
(1.57297e-81 9.9861e-84 1.34137e-82)
(1.57297e-81 9.9861e-84 1.34137e-82)
(1.40605e-81 8.92643e-84 1.19903e-82)
(3.9264e-82 2.4927e-84 3.34827e-83)
(3.9264e-82 2.4927e-84 3.34827e-83)
(3.9264e-82 2.4927e-84 3.34827e-83)
(3.9264e-82 2.4927e-84 3.34827e-83)
(3.62322e-82 2.30022e-84 3.08973e-83)
(5.91366e-83 3.75434e-85 5.04294e-84)
(5.91366e-83 3.75434e-85 5.04294e-84)
(5.91366e-83 3.75434e-85 5.04294e-84)
(5.91366e-83 3.75434e-85 5.04294e-84)
(5.71764e-83 3.6299e-85 4.87578e-84)
(1.06218e-83 6.74334e-86 9.0579e-85)
(1.06218e-83 6.74334e-86 9.0579e-85)
(1.06218e-83 6.74334e-86 9.0579e-85)
(1.06218e-83 6.74334e-86 9.0579e-85)
(1.06218e-83 6.74334e-86 9.0579e-85)
(2.0753e-84 1.31753e-86 1.76974e-85)
(1.98809e-84 1.26216e-86 1.69537e-85)
(1.98809e-84 1.26216e-86 1.69537e-85)
(1.98809e-84 1.26216e-86 1.69537e-85)
(1.98809e-84 1.26216e-86 1.69537e-85)
(4.09172e-85 2.59767e-87 3.48928e-86)
(3.07306e-85 1.95097e-87 2.62061e-86)
(3.07306e-85 1.95097e-87 2.62061e-86)
(3.07306e-85 1.95097e-87 2.62061e-86)
(3.07306e-85 1.95097e-87 2.62061e-86)
(9.85382e-86 6.25583e-88 8.40304e-87)
(7.24423e-86 4.5991e-88 6.17766e-87)
(7.24423e-86 4.5991e-88 6.17766e-87)
(7.24423e-86 4.5991e-88 6.17766e-87)
(7.24423e-86 4.5991e-88 6.17766e-87)
(1.96523e-86 1.24765e-88 1.67589e-87)
(9.47591e-87 6.0159e-89 8.08079e-88)
(9.47591e-87 6.0159e-89 8.08079e-88)
(9.47591e-87 6.0159e-89 8.08079e-88)
(9.47591e-87 6.0159e-89 8.08079e-88)
(3.78803e-87 2.40489e-89 3.23033e-88)
(2.25668e-87 1.43269e-89 1.92444e-88)
(2.25668e-87 1.43269e-89 1.92444e-88)
(2.25668e-87 1.43269e-89 1.92444e-88)
(2.25668e-87 1.43269e-89 1.92444e-88)
(8.26545e-88 5.24746e-90 7.04858e-89)
(3.17181e-88 2.01368e-90 2.70486e-89)
(3.17181e-88 2.01368e-90 2.70486e-89)
(3.17181e-88 2.01368e-90 2.70486e-89)
(3.17181e-88 2.01368e-90 2.70486e-89)
(1.47556e-88 9.36788e-91 1.25833e-89)
(7.02274e-89 4.45852e-91 5.98885e-90)
(7.02274e-89 4.45852e-91 5.98885e-90)
(7.02274e-89 4.45852e-91 5.98885e-90)
(7.02274e-89 4.45852e-91 5.98885e-90)
(3.1668e-89 2.0105e-91 2.70058e-90)
(9.63406e-90 6.11636e-92 8.21573e-91)
(9.63406e-90 6.11636e-92 8.21573e-91)
(9.63406e-90 6.11636e-92 8.21573e-91)
(9.63406e-90 6.11636e-92 8.21573e-91)
(5.0401e-90 3.1998e-92 4.2981e-91)
(1.79265e-90 1.1381e-92 1.52875e-91)
(1.79265e-90 1.1381e-92 1.52875e-91)
(1.79265e-90 1.1381e-92 1.52875e-91)
(1.79265e-90 1.1381e-92 1.52875e-91)
(1.02722e-90 6.52152e-93 8.76e-92)
(3.62885e-91 2.30386e-93 3.09463e-92)
(3.62885e-91 2.30386e-93 3.09463e-92)
(3.62885e-91 2.30386e-93 3.09463e-92)
(3.62885e-91 2.30386e-93 3.09463e-92)
(2.16765e-91 1.37618e-93 1.84854e-92)
(6.15119e-92 3.90523e-94 5.24566e-93)
(6.15119e-92 3.90523e-94 5.24566e-93)
(6.15119e-92 3.90523e-94 5.24566e-93)
(6.15119e-92 3.90523e-94 5.24566e-93)
(3.96974e-92 2.52029e-94 3.38535e-93)
(1.12879e-92 7.16638e-95 9.62618e-94)
(1.12879e-92 7.16638e-95 9.62618e-94)
(1.12879e-92 7.16638e-95 9.62618e-94)
(1.12879e-92 7.16638e-95 9.62618e-94)
(7.74275e-93 4.91566e-95 6.60292e-94)
(2.05184e-93 1.30266e-95 1.74979e-94)
(2.05184e-93 1.30266e-95 1.74979e-94)
(2.05184e-93 1.30266e-95 1.74979e-94)
(2.05184e-93 1.30266e-95 1.74979e-94)
(1.44308e-93 9.16174e-96 1.23064e-94)
(2.25556e-94 1.43201e-96 1.92355e-95)
(2.25556e-94 1.43201e-96 1.92355e-95)
(2.25556e-94 1.43201e-96 1.92355e-95)
(2.25556e-94 1.43201e-96 1.92355e-95)
(1.64171e-94 1.04229e-96 1.40006e-95)
(8.51505e-96 5.40723e-98 7.26355e-97)
(8.51505e-96 5.40723e-98 7.26355e-97)
(8.51505e-96 5.40723e-98 7.26355e-97)
(8.51505e-96 5.40723e-98 7.26355e-97)
(6.88933e-96 4.37487e-98 5.87677e-97)
(1.51741e-96 9.6358e-99 1.29439e-97)
(1.51741e-96 9.6358e-99 1.29439e-97)
(1.51741e-96 9.6358e-99 1.29439e-97)
(1.51741e-96 9.6358e-99 1.29439e-97)
(1.30429e-96 8.28245e-99 1.11259e-97)
(3.45247e-97 2.19238e-99 2.94504e-98)
(3.45247e-97 2.19238e-99 2.94504e-98)
(3.45247e-97 2.19238e-99 2.94504e-98)
(3.45247e-97 2.19238e-99 2.94504e-98)
(3.04803e-97 1.93555e-99 2.60004e-98)
(3.72508e-98 2.36549e-100 3.17759e-99)
(3.72508e-98 2.36549e-100 3.17759e-99)
(3.72508e-98 2.36549e-100 3.17759e-99)
(3.72508e-98 2.36549e-100 3.17759e-99)
(3.51017e-98 2.22902e-100 2.99426e-99)
(1.06552e-98 6.76628e-101 9.08921e-100)
(1.06552e-98 6.76628e-101 9.08921e-100)
(1.06552e-98 6.76628e-101 9.08921e-100)
(1.06552e-98 6.76628e-101 9.08921e-100)
(1.03708e-98 6.58567e-101 8.84659e-100)
(1.26941e-99 8.06095e-102 1.08284e-100)
(1.26941e-99 8.06095e-102 1.08284e-100)
(1.26941e-99 8.06095e-102 1.08284e-100)
(1.26941e-99 8.06095e-102 1.08284e-100)
(1.26941e-99 8.06095e-102 1.08284e-100)
(3.02165e-100 1.9188e-102 2.57755e-101)
(2.82222e-100 1.79216e-102 2.40743e-101)
(2.82222e-100 1.79216e-102 2.40743e-101)
(2.82222e-100 1.79216e-102 2.40743e-101)
(2.82222e-100 1.79216e-102 2.40743e-101)
(6.47607e-101 4.11241e-103 5.52425e-102)
(4.82147e-101 3.06171e-103 4.11283e-102)
(4.82147e-101 3.06171e-103 4.11283e-102)
(4.82147e-101 3.06171e-103 4.11283e-102)
(4.82147e-101 3.06171e-103 4.11283e-102)
(1.35368e-101 8.59606e-104 1.15472e-102)
(8.75362e-102 5.55868e-104 7.46707e-103)
(8.75362e-102 5.55868e-104 7.46707e-103)
(8.75362e-102 5.55868e-104 7.46707e-103)
(8.75362e-102 5.55868e-104 7.46707e-103)
(2.85414e-102 1.81242e-104 2.43465e-103)
(1.63107e-102 1.03575e-104 1.39134e-103)
(1.63107e-102 1.03575e-104 1.39134e-103)
(1.63107e-102 1.03575e-104 1.39134e-103)
(1.63107e-102 1.03575e-104 1.39134e-103)
(5.72352e-103 3.63452e-105 4.8823e-104)
(2.69861e-103 1.71367e-105 2.30199e-104)
(2.69861e-103 1.71367e-105 2.30199e-104)
(2.69861e-103 1.71367e-105 2.30199e-104)
(2.69861e-103 1.71367e-105 2.30199e-104)
(1.12382e-103 7.13649e-106 9.58652e-105)
(5.33275e-104 3.38641e-106 4.549e-105)
(5.33275e-104 3.38641e-106 4.549e-105)
(5.33275e-104 3.38641e-106 4.549e-105)
(5.33275e-104 3.38641e-106 4.549e-105)
(2.29441e-104 1.457e-106 1.9572e-105)
(8.43266e-105 5.35488e-107 7.19327e-106)
(8.43266e-105 5.35488e-107 7.19327e-106)
(8.43266e-105 5.35488e-107 7.19327e-106)
(8.43266e-105 5.35488e-107 7.19327e-106)
(3.98127e-105 2.52817e-107 3.39612e-106)
(1.3248e-105 8.41268e-108 1.13008e-106)
(1.3248e-105 8.41268e-108 1.13008e-106)
(1.3248e-105 8.41268e-108 1.13008e-106)
(1.3248e-105 8.41268e-108 1.13008e-106)
(7.22781e-106 4.58976e-108 6.16547e-107)
(2.79188e-106 1.77288e-108 2.38154e-107)
(2.79188e-106 1.77288e-108 2.38154e-107)
(2.79188e-106 1.77288e-108 2.38154e-107)
(2.79188e-106 1.77288e-108 2.38154e-107)
(1.59087e-106 1.01022e-108 1.35705e-107)
(5.0534e-107 3.209e-109 4.31069e-108)
(5.0534e-107 3.209e-109 4.31069e-108)
(5.0534e-107 3.209e-109 4.31069e-108)
(5.0534e-107 3.209e-109 4.31069e-108)
(3.12179e-107 1.98239e-109 2.66297e-108)
(9.8469e-108 6.25296e-110 8.39968e-109)
(9.8469e-108 6.25296e-110 8.39968e-109)
(9.8469e-108 6.25296e-110 8.39968e-109)
(9.8469e-108 6.25296e-110 8.39968e-109)
(6.23528e-108 3.95952e-110 5.31887e-109)
(1.3338e-108 8.46989e-111 1.13777e-109)
(1.3338e-108 8.46989e-111 1.13777e-109)
(1.3338e-108 8.46989e-111 1.13777e-109)
(1.3338e-108 8.46989e-111 1.13777e-109)
(9.5721e-109 6.07847e-111 8.16528e-110)
(3.26168e-109 2.07122e-111 2.7823e-110)
(3.26168e-109 2.07122e-111 2.7823e-110)
(3.26168e-109 2.07122e-111 2.7823e-110)