/*--------------------------------*- C++ -*----------------------------------*\
| =========                 |                                                 |
| \\      /  F ield         | OpenFOAM: The Open Source CFD Toolbox           |
|  \\    /   O peration     | Version:  2.4.x                                 |
|   \\  /    A nd           | Web:      www.OpenFOAM.org                      |
|    \\/     M anipulation  |                                                 |
\*---------------------------------------------------------------------------*/
FoamFile
{
    version     2.0;
    format      ascii;
    class       volScalarField;
    location    "0";
    object      tf;
}
// * * * * * * * * * * * * * * * * * * * * * * * * * * * * * * * * * * * * * //

dimensions      [0 0 1 0 0 0 0];

internalField   nonuniform List<scalar> 
1300
(
10.1916
10.1867
10.1685
10.1418
10.1099
10.0818
10.0404
9.99575
9.93493
9.87604
9.80501
9.71352
9.588
9.50335
9.41857
9.29428
9.21928
9.15273
9.02828
8.92651
8.83201
8.68554
8.55157
8.43665
8.33205
8.22066
8.11709
8.01505
7.93338
7.84027
7.74497
7.67218
7.64023
7.36411
7.21963
7.18098
7.1141
7.03559
6.97
6.90049
6.82523
6.74818
6.67432
6.60278
6.52667
6.43913
6.36545
6.31061
6.24443
6.18722
6.15011
6.09562
6.03437
5.98801
5.93037
5.86466
5.81228
5.76727
5.7234
5.67926
5.63828
5.60125
5.56736
5.5279
5.49468
5.47549
5.41498
5.30116
5.28993
5.26435
5.23096
5.19867
5.17087
5.13645
5.10214
5.06615
5.03284
4.99737
4.95742
4.91469
4.88695
4.85651
4.819
4.79881
4.77568
4.73716
4.71032
4.68252
4.64071
4.60765
4.57903
4.55261
4.52307
4.49533
4.46657
4.44493
4.41473
4.38657
4.36722
4.36197
4.22214
4.21632
4.19479
4.16343
4.12885
4.1026
4.06655
4.03044
3.98818
3.94911
3.9052
3.85247
3.78365
3.73743
3.69092
3.62244
3.58092
3.54278
3.47023
3.40838
3.34548
3.24419
3.13053
3.0049
2.86664
2.70301
2.51871
2.31341
2.13879
1.91715
1.67708
1.49066
1.40876
1.11481
0.973192
0.965553
0.952395
0.937989
0.928012
0.920045
0.913412
0.911578
0.913353
0.909031
0.889771
0.849484
0.80348
0.730732
0.584295
0.443215
0.349691
0.214895
0.0798337
0.0266684
0.0173553
0.0154362
0.0144535
0.0137133
0.0130396
0.0123175
0.0115866
0.010902
0.0102429
0.00944116
0.00875359
0.00835602
0.00799502
0.00746272
0.00766279
0.00870818
0.0107054
0.0122576
0.0131376
0.0164076
0.0187177
0.0194533
0.0245795
0.0282415
0.0305582
0.0333527
0.0373171
0.0414065
0.0427948
0.0468724
0.0492558
0.0512753
0.0536139
0.057333
0.059136
0.0613577
0.0638607
0.0662912
0.0671909
0.0690354
0.0702978
0.0713048
0.0723213
0.0737304
0.0746349
0.07533
0.0778298
0.0785312
0.0790936
0.0798562
0.0802554
0.0805913
0.081126
0.0817436
0.0821096
0.0824568
0.0830403
0.0833916
0.0836846
0.0840615
0.0843779
0.0846276
0.0848088
0.0851105
0.085279
0.0853857
0.0858057
0.0859154
0.0860531
0.0863427
0.0864476
0.0866739
0.0867591
0.086924
0.0870598
0.0871512
0.0873083
0.0873558
0.0876776
0.0877646
0.0880401
0.0881397
0.088283
0.0884322
0.0885505
0.0886833
0.088745
0.0889672
0.0890282
0.0892968
0.0893393
0.0895658
0.0895859
0.0900536
0.0900784
0.0902406
0.0902479
0.0906164
0.0906402
0.0909474
0.0909826
0.0913232
0.091393
0.0916819
0.0917847
0.0920739
0.0922518
0.0923649
0.0924899
0.092658
0.0930419
0.0931023
0.0936045
0.0936045
0.0941333
0.0942031
0.0944868
0.0946521
0.0948561
0.09523
0.095251
0.0956864
0.0956864
0.0961721
0.0963697
0.0966333
0.0971294
0.0971294
0.0977146
0.0977428
0.0980456
0.0983121
0.0983824
0.0991921
0.0991921
0.0997139
0.100065
0.100129
0.10082
0.10082
0.101188
0.101498
0.101498
0.102309
0.102336
0.102854
0.103769
0.103769
0.104475
0.104745
0.10479
0.105595
0.105595
0.105956
0.106628
0.106628
0.107397
0.107881
0.107881
0.109125
0.109356
0.109402
0.11051
0.11051
0.110794
0.111922
0.111922
0.112392
0.113352
0.113352
0.11404
0.114991
0.114991
0.115633
0.116339
0.116339
0.117275
0.118226
0.118226
0.119367
0.120607
0.120607
0.121471
0.122637
0.122637
0.123208
0.124344
0.124344
0.12489
0.127007
0.127007
0.127092
0.129251
0.129251
0.129251
0.13163
0.132112
0.132112
0.133624
0.134693
0.134693
0.135747
0.138202
0.138202
0.138202
0.141078
0.141153
0.141153
0.143347
0.144762
0.144762
0.145618
0.149039
0.149039
0.149039
0.152624
0.153816
0.153816
0.154893
0.157982
0.157982
0.157982
0.161866
0.16335
0.16335
0.164196
0.169169
0.169169
0.169169
0.172271
0.175096
0.175096
0.175096
0.18147
0.182535
0.182535
0.18355
0.189518
0.189518
0.189518
0.192693
0.197696
0.197696
0.197696
0.203155
0.207026
0.207026
0.207026
0.215882
0.219069
0.219069
0.219069
0.226396
0.227809
0.227809
0.227809
0.241755
0.243417
0.243417
0.243417
0.252888
0.253936
0.253936
0.253936
0.268454
0.270853
0.270853
0.270853
0.28117
0.284315
0.284315
0.284315
0.295549
0.302306
0.302306
0.302306
0.309682
0.319395
0.319395
0.319395
0.323521
0.341406
0.341406
0.341406
0.341406
0.356472
0.358312
0.358312
0.358312
0.369073
0.37816
0.37816
0.37816
0.381246
0.400227
0.400227
0.400227
0.400227
0.413313
0.419373
0.419373
0.419373
0.422844
0.439494
0.439494
0.439494
0.439494
0.451183
0.458778
0.458778
0.458778
0.458778
0.479636
0.47998
0.47998
0.47998
0.485551
0.498263
0.498263
0.498263
0.498263
0.508355
0.516022
0.516022
0.516022
0.516022
0.530551
0.534801
0.534801
0.534801
0.534801
0.547713
0.548831
0.548831
0.548831
0.548975
0.56835
0.56835
0.56835
0.56835
0.568668
0.577657
0.577657
0.577657
0.577657
0.577657
0.600896
0.600896
0.600896
0.600896
0.600896
0.609
0.609431
0.609431
0.609431
0.609431
0.623595
0.625186
0.625186
0.625186
0.625186
0.634602
0.636283
0.636283
0.636283
0.636283
0.646591
0.6492
0.6492
0.6492
0.6492
0.65815
0.661174
0.661174
0.661174
0.661174
0.6691
0.672546
0.672546
0.672546
0.672546
0.680535
0.684904
0.684904
0.684904
0.684904
0.690589
0.694443
0.694443
0.694443
0.694443
0.701285
0.706986
0.706986
0.706986
0.706986
0.711929
0.716973
0.716973
0.716973
0.716973
0.721805
0.727844
0.727844
0.727844
0.727844
0.732093
0.738629
0.738629
0.738629
0.738629
0.74214
0.748851
0.748851
0.748851
0.748851
0.75254
0.761445
0.761445
0.761445
0.761445
0.763622
0.770425
0.770425
0.770425
0.770425
0.77281
0.782852
0.782852
0.782852
0.782852
0.784267
0.792857
0.792857
0.792857
0.792857
0.793916
0.804507
0.804507
0.804507
0.804507
0.804988
0.816419
0.816419
0.816419
0.816419
0.816419
0.827753
0.827869
0.827869
0.827869
0.827869
0.840069
0.840856
0.840856
0.840856
0.840856
0.85004
0.851188
0.851188
0.851188
0.851188
0.864171
0.866674
0.866674
0.866674
0.866674
0.875137
0.877416
0.877416
0.877416
0.877416
0.88859
0.89257
0.89257
0.89257
0.89257
0.901497
0.905567
0.905567
0.905567
0.905567
0.915251
0.920784
0.920784
0.920784
0.920784
0.929628
0.935879
0.935879
0.935879
0.935879
0.943894
0.950851
0.950851
0.950851
0.950851
0.958878
0.967406
0.967406
0.967406
0.967406
0.974364
0.983425
0.983425
0.983425
0.983425
0.989983
1.00051
1.00051
1.00051
1.00051
1.00702
1.02003
1.02003
1.02003
1.02003
1.0248
1.03689
1.03689
1.03689
1.03689
1.0419
1.05846
1.05846
1.05846
1.05846
1.06126
1.07388
1.07388
1.07388
1.07388
1.07736
1.10038
1.10038
1.10038
1.10038
1.10164
1.11595
1.11595
1.11595
1.11595
1.11674
1.1421
1.1421
1.1421
1.1421
1.1421
1.16249
1.16291
1.16291
1.16291
1.16291
1.1851
1.18679
1.18679
1.18679
1.18679
1.20759
1.21046
1.21046
1.21046
1.21046
1.23028
1.23439
1.23439
1.23439
1.23439
1.25515
1.26108
1.26108
1.26108
1.26108
1.27652
1.28231
1.28231
1.28231
1.28231
1.30443
1.31499
1.31499
1.31499
1.31499
1.32927
1.33779
1.33779
1.33779
1.33779
1.35484
1.3674
1.3674
1.3674
1.3674
1.38129
1.39385
1.39385
1.39385
1.39385
1.40657
1.42064
1.42064
1.42064
1.42064
1.4337
1.45142
1.45142
1.45142
1.45142
1.46055
1.47584
1.47584
1.47584
1.47584
1.48744
1.51172
1.51172
1.51172
1.51172
1.51828
1.53579
1.53579
1.53579
1.53579
1.54267
1.56673
1.56673
1.56673
1.56673
1.57162
1.59519
1.59519
1.59519
1.59519
1.5987
1.62411
1.62411
1.62411
1.62411
1.62622
1.65401
1.65401
1.65401
1.65401
1.65455
1.68074
1.68074
1.68074
1.68074
1.68074
1.71416
1.7152
1.7152
1.7152
1.7152
1.73449
1.73619
1.73619
1.73619
1.73619
1.76797
1.77277
1.77277
1.77277
1.77277
1.79062
1.79459
1.79459
1.79459
1.79459
1.81848
1.82571
1.82571
1.82571
1.82571
1.84355
1.85058
1.85058
1.85058
1.85058
1.87012
1.87989
1.87989
1.87989
1.87989
1.89601
1.90606
1.90606
1.90606
1.90606
1.92018
1.93103
1.93103
1.93103
1.93103
1.94452
1.95722
1.95722
1.95722
1.95722
1.96837
1.98122
1.98122
1.98122
1.98122
1.99136
2.00571
2.00571
2.00571
2.00571
2.01478
2.03066
2.03066
2.03066
2.03066
2.03737
2.0521
2.0521
2.0521
2.0521
2.0587
2.07723
2.07723
2.07723
2.07723
2.08101
2.09507
2.09507
2.09507
2.09507
2.09922
2.12074
2.12074
2.12074
2.12074
2.12263
2.13778
2.13778
2.13778
2.13778
2.13907
2.15899
2.15899
2.15899
2.15899
2.15918
2.17742
2.17742
2.17742
2.17742
2.17742
2.19548
2.19624
2.19624
2.19624
2.19624
2.21252
2.21415
2.21415
2.21415
2.21415
2.22701
2.22913
2.22913
2.22913
2.22913
2.24358
2.24701
2.24701
2.24701
2.24701
2.25644
2.25946
2.25946
2.25946
2.25946
2.27111
2.27594
2.27594
2.27594
2.27594
2.2842
2.28852
2.28852
2.28852
2.28852
2.29601
2.30088
2.30088
2.30088
2.30088
2.30727
2.31239
2.31239
2.31239
2.31239
2.31725
2.32201
2.32201
2.32201
2.32201
2.32696
2.3329
2.3329
2.3329
2.3329
2.33583
2.34016
2.34016
2.34016
2.34016
2.34303
2.34829
2.34829
2.34829
2.34829
2.35023
2.35469
2.35469
2.35469
2.35469
2.35603
2.35999
2.35999
2.35999
2.35999
2.36091
2.36453
2.36453
2.36453
2.36453
2.36496
2.36738
2.36738
2.36738
2.36738
2.36764
2.36995
2.36995
2.36995
2.36995
2.36999
2.37081
2.37081
2.37081
2.37081
2.37081
2.37098
2.37098
2.37098
2.37098
2.37098
2.37098
2.37098
2.37098
2.37098
2.37098
2.37098
2.37098
2.37098
2.37098
2.37098
2.37098
2.37098
2.37098
2.37098
2.37098
2.37098
2.37098
2.37098
2.37098
2.37098
2.37098
2.37098
2.37098
2.37098
2.37098
2.37098
2.37098
2.37098
2.37098
2.37098
2.37098
2.37098
2.37098
2.37098
2.37098
2.37098
2.37098
2.37098
2.37098
2.37098
2.37098
2.37098
2.37098
2.37098
2.37098
2.37098
2.37098
2.37098
2.37098
2.37098
2.37098
2.37098
2.37098
2.37098
2.37098
2.37098
2.37098
2.37098
2.37098
2.37098
2.37098
2.37098
2.37098
2.37098
2.37098
2.37098
2.37098
2.37098
2.37098
2.37098
2.37098
2.37098
2.37098
2.37098
2.37098
2.37098
2.37098
2.37098
2.37098
2.37098
2.37098
2.37098
2.37098
2.37098
2.37098
2.37098
2.37098
2.37098
2.37098
2.37098
2.37098
2.37098
2.37098
2.37098
2.37098
2.37098
2.37098
2.37098
2.37098
2.37098
2.37098
2.37098
2.37098
2.37098
2.37098
2.37098
2.37098
2.37098
2.37098
2.37098
2.37098
2.37098
2.37098
2.37098
2.37098
2.37098
2.37098
2.37098
2.37098
2.37098
2.37098
2.37098
2.37098
2.37098
2.37098
2.37098
2.37098
2.37098
2.37098
2.37098
2.37098
2.37098
2.37098
2.37098
2.37098
2.37098
2.37098
2.37098
2.37098
2.37098
2.37098
2.37098
2.37098
2.37098
2.37098
2.37098
2.37098
2.37098
2.37098
2.37098
2.37098
2.37098
2.37098
2.37098
2.37098
2.37098
2.37098
2.37098
2.37098
2.37098
2.37098
2.37098
2.37098
2.37098
2.37098
2.37098
2.37098
2.37098
2.37098
2.37098
2.37098
2.37098
2.37098
2.37098
2.37098
2.37098
2.37098
2.37098
2.37098
2.37098
2.37098
2.37098
2.37098
2.37098
2.37098
2.37098
2.37098
2.37098
2.37098
2.37098
2.37098
2.37098
2.37098
2.37098
2.37098
2.37098
2.37098
2.37098
2.37098
2.37098
2.37098
2.37098
2.37098
2.37098
2.37098
2.37098
2.37098
2.37098
2.37098
2.37098
2.37098
2.37098
2.37098
2.37098
2.37098
2.37098
2.37098
2.37098
2.37098
2.37098
2.37098
2.37098
2.37098
2.37098
2.37098
2.37098
2.37098
2.37098
2.37098
2.37098
2.37098
2.37098
2.37098
2.37098
2.37098
2.37098
2.37098
2.37098
2.37098
2.37098
2.37098
2.37098
2.37098
2.37098
2.37098
2.37098
2.37098
2.37098
2.37098
2.37098
2.37098
2.37098
2.37098
2.37098
2.37098
2.37098
2.37098
2.37098
2.37098
2.37098
2.37098
2.37098
2.37098
2.37098
2.37098
2.37098
2.37098
2.37098
2.37098
2.37098
2.37098
2.37098
2.37098
2.37098
2.37098
2.37098
2.37098
2.37098
2.37098
2.37098
2.37098
2.37098
2.37098
2.37098
2.37098
2.37098
2.37098
2.37098
2.37098
2.37098
2.37098
2.37098
2.37098
2.37098
2.37098
)
;

boundaryField
{
    wall_bottom
    {
        type            calculated;
        value           uniform 10.1929;
    }
    wall_top
    {
        type            zeroGradient;
    }
    front1
    {
        type            cyclic;
    }
    back1
    {
        type            cyclic;
    }
    left1
    {
        type            cyclic;
    }
    right1
    {
        type            cyclic;
    }
    front2
    {
        type            cyclic;
    }
    back2
    {
        type            cyclic;
    }
    left2
    {
        type            cyclic;
    }
    right2
    {
        type            cyclic;
    }
}


// ************************************************************************* //
